8402
Lattice="46.21103788889213 0.0 0.0 0.0 46.21103788889213 0.0 0.0 0.0 46.21103788889213" Properties=species:S:1:pos:R:3 Time=0.0 pbc="T T T"
Sc      13.42143340      37.94117740      25.60241890
Sc      12.42295650      39.04531100      25.90955920
V       14.28941060      38.55259700      24.61485670
V       12.59346770      39.93374630      24.77637670
Sc      13.76246070      39.69945140      24.16469190
H       12.86644170      37.09214400      25.17682650
H       14.00343800      37.61964800      26.47871020
H       12.66826440      39.59366610      26.83103940
H       11.38631820      38.68413930      25.83930970
V       14.35254570      40.52296830      23.50309180
Sc       1.18216121      41.75142670      21.21326640
Sc       0.04249562      40.75432590      21.08155820
V        0.97582924      42.69587330      20.13255120
V       45.42122270      41.40431590      20.08794590
Sc      46.16061780      42.27129360      19.38278960
H        2.16225004      41.25593190      21.15072820
H        1.12047529      42.35966870      22.12772370
H       45.78334050      40.45066830      22.02850720
H        0.30990505      39.84114840      20.52964970
V       46.00300220      42.59752270      18.22830770
Sc      32.55609890       6.02051878      35.70490650
Sc      33.33187480       6.37003326      34.44538120
V       31.65164570       7.13867283      35.88983150
V       33.25153350       7.81362391      34.55533600
Sc      32.06599430       8.13259888      35.09231570
H       33.33012770       6.04727745      36.48603440
H       31.92514990       5.15471935      35.45531460
H       32.97187810       5.99767303      33.47494130
H       34.40319440       6.14262867      34.54812620
V       31.44083020       9.14096546      34.85469060
Sc      22.65451430      41.33514790       1.70888042
Sc      23.13858990      41.01194760       3.11302114
V       22.98620220      42.73187640       1.50485039
V       23.22740750      42.34984970       3.66495037
Sc      23.41773990      43.22919850       2.67191601
H       21.56571200      41.22356030       1.59907019
H       23.08296390      40.60013200       1.01161134
H       24.16104890      40.60665890       3.13092446
H       22.45594790      40.35343930       3.67012453
V       24.06966400      44.24384310       2.76987195
Sc      21.07917590       3.77969742       8.86536026
Sc      21.08957670       2.26731110       8.71377945
V       21.49619870       4.30727768       7.58073950
V       21.26588250       2.12849760       7.28124809
Sc      21.56868550       3.29826188       6.70197296
H       21.71871760       4.20349455       9.65363789
H       20.07812310       4.18876028       9.06675625
H       20.06866840       1.97403347       8.99966431
H       21.92251010       1.68089581       9.12891769
V       21.81142810       3.46415067       5.52823687
Sc      21.33184430      33.66672520      32.23211290
Sc      21.74600030      33.20528410      30.84432790
V       21.05290990      32.39629750      32.87297060
V       21.92368130      31.76803210      30.91666220
Sc      21.35802840      31.37177850      32.06497190
H       20.49360850      34.37860490      32.25631330
H       22.19499590      34.12771990      32.73455810
H       22.69979480      33.62751010      30.49503520
H       20.89411160      33.40458300      30.17757230
V       21.23258400      30.21839140      32.40857700
Sc      11.20261000      22.59298130      17.25781060
Sc      11.18110850      23.60063170      16.12001610
V       12.57865330      22.53801350      17.71166420
V       12.54148770      23.34606170      15.68751240
Sc      13.32787420      23.07158280      16.73720550
H       10.90171720      21.62033080      16.84137920
H       10.59813500      22.81319240      18.15006260
H       11.05444620      24.57680320      16.61098290
H       10.51433850      23.39034270      15.27078530
V       14.48555180      23.42194560      16.77077480
Sc      40.25065610      35.18399810       3.23954225
Sc      40.75797650      33.76711650       3.02629757
V       40.00923920      35.15181730       4.66894102
V       41.41569900      33.42643740       4.27282619
Sc      40.91348650      34.29440310       5.16165781
H       39.35266110      35.55421070       2.72325802
H       40.98395920      35.95161820       2.95140934
H       41.45529560      33.66069790       2.18224764
H       39.95617680      33.02444840       2.90153575
V       41.30400470      34.36920170       6.30446148
Sc      28.08752630       4.18355608      36.66251370
Sc      27.20852280       5.05042028      35.77577970
V       27.18119050       3.61870456      37.64332960
V       25.89845470       4.86731672      36.36965940
Sc      25.91959570       3.98265243      37.37590030
H       28.80117420       4.73325205      37.29381180
H       28.59157750       3.35814762      36.13845830
H       27.16549300       4.56579161      34.78923030
H       27.42327120       6.12905407      35.75502010
V       24.99153520       3.45990634      37.94995500
Sc      11.78418640       4.76167202       2.97490144
Sc      11.34760950       6.05884218       2.31372952
V       12.68632410       4.19586754       1.99077260
V       11.83031560       5.93871593       0.95172286
Sc      12.70352940       4.92582512       0.86717802
H       10.91467480       4.09439850       3.06814623
H       12.40094660       4.86168194       3.88022113
H       11.83885960       6.91711187       2.79543996
H       10.25810810       6.20256519       2.26546693
V       13.37033080       4.70985413      46.09189220
Sc      22.26720050      37.26979060      13.74056240
Sc      21.84398460      35.85117720      13.39585970
V       23.16476440      37.14451980      14.87245560
V       22.93466760      35.14360050      14.03792570
Sc      23.65861130      35.89884570      14.87525080
H       21.35300450      37.85238650      13.92717840
H       22.88140300      37.74901960      12.96397210
H       21.86805340      35.55706790      12.33618070
H       20.95876690      35.46511460      13.92249580
V       24.55044170      35.49782560      15.58793540
Sc      15.69823550      18.40631290      33.51317980
Sc      15.31440350      18.13279530      32.06810000
V       15.68243600      17.09523390      34.13231280
V       15.46191220      16.69376750      31.96838570
Sc      15.41620060      16.16954800      33.20074080
H       14.96800140      19.05347630      34.02105710
H       16.76175310      18.68721010      33.51810070
H       16.03311730      18.55540660      31.35057260
H       14.26231100      18.39439580      31.88191410
V       15.22869400      15.00485320      33.46986390
Sc      35.49936680      28.00708010      24.49471090
Sc      35.65810780      26.57581330      24.98120310
V       34.43512340      28.46503260      25.36658860
V       35.18054960      26.68672940      26.34580420
Sc      34.43808750      27.78806690      26.52300830
H       35.20240020      28.02549740      23.43571660
H       36.38427730      28.63046260      24.69048500
H       36.65557480      26.12213900      24.88505940
H       34.98152920      25.87108420      24.47564130
V       33.81583790      28.05188750      27.52665330
Sc       5.76392174       9.49170399      42.51876070
Sc       6.11547184      10.00073720      43.90717320
V        5.68273973       8.04659843      42.60579680
V        5.85094023       8.79918194      44.67449950
Sc       5.84252739       7.71062136      43.89311220
H        6.51635027       9.74042702      41.75587840
H        4.76601076       9.72935104      42.12165070
H        5.50541210      10.80806260      44.33851240
H        7.19263840      10.20553020      43.99532700
V        5.86619186       6.59656286      44.36471940
Sc      28.12758060      12.19775960       3.65614963
Sc      26.77547450      11.53869720       3.87488294
V       29.09244160      11.18388370       4.03508806
V       27.09565730      10.14556120       4.11809635
Sc      28.42990300      10.02166750       4.11187458
H       28.27288630      13.05047510       4.33568001
H       28.26114650      12.49720100       2.60615253
H       26.10007100      11.55531500       3.00680876
H       26.28400990      11.87962250       4.79804707
V       28.98399350       8.95042419       4.20944023
Sc      32.90953450      44.96675110       3.28674841
Sc      32.16830060       0.08260493       3.30489039
V       33.75092320      45.09097670       4.46111488
V       32.78524020       0.84167433       4.37526369
Sc      33.77865600       0.13458037       4.93090916
H       33.55720520      44.91631700       2.39906502
H       32.24113850      44.09991460       3.39554787
H       31.14854430       0.05607209       3.71646094
H       32.18819430       0.76377612       2.44140387
V       34.63850780       0.53586668       5.68172264
Sc      31.08871080      42.93094250      18.43353080
Sc      30.74562260      42.43260570      19.82793050
V       30.85972600      41.77084730      17.59433940
V       30.03126720      41.19605260      19.57666400
Sc      30.20047950      40.83900450      18.29623990
H       32.14997860      43.21963120      18.41444210
H       30.47177120      43.73827740      18.01211360
H       30.08496480      42.95094300      20.53846170
H       31.62280270      42.14727400      20.42721180
V       29.66697690      39.87514880      17.79578590
Sc      28.13757130      33.07953260       2.10624480
Sc      28.36098290      31.61997990       2.46705866
V       28.87123870      33.21422200       0.86282641
V       29.42012980      31.17876630       1.58047271
Sc      29.58110050      32.10311890       0.62377960
H       28.67459680      33.80803680       2.73145509
H       27.11120610      33.41389850       1.89464974
H       27.50798420      30.98034860       2.19638634
H       28.68137930      31.59924510       3.51915932
V       30.21035190      31.84779740      45.83334350
Sc       9.85957050      17.18232150      15.19046690
Sc       9.54382324      18.60153580      15.63378720
V        8.71007061      16.41921620      15.63635640
V        8.09449196      18.56670190      15.60691360
Sc       7.69156647      17.28972630      15.65776250
H       10.73897360      16.73835180      15.67989440
H        9.91361618      17.11294360      14.09398840
H        9.87858295      19.37633320      14.92836280
H        9.76563644      18.73258780      16.70318980
V        6.52970695      16.98056980      15.79415610
Sc      22.41185000       5.43441725      37.59433750
Sc      23.06099700       5.57064390      38.96197890
V       21.65140340       4.20213699      37.66987990
V       22.82186510       4.26094866      39.53644560
Sc      22.15114970       3.47793198      38.68051530
H       23.28257370       5.13508511      36.99247740
H       21.95269580       6.34441328      37.18071370
H       22.53549190       6.29350185      39.60332110
H       24.13568120       5.80463648      38.97934340
V       21.99836350       2.29091525      38.85868840
Sc      45.92863850      43.64531710      31.01131440
Sc      45.10902020      44.10484700      29.81655310
V       46.06158830      44.87660980      31.76546100
V       44.46387100      45.30034260      30.32357030
Sc      45.12960820      45.76334380      31.39035420
H        0.66629738      43.20012660      30.67698290
H       45.27774050      42.95691680      31.57027820
H       44.30589290      43.36706160      29.67280960
H       45.79507060      44.20346830      28.96238520
V       45.00359730       0.62494624      31.93593980
Sc       0.15628962      34.35940170       8.42529583
Sc       0.05791946      35.87599180       8.39930344
V       45.02231980      33.92256930       8.74565315
V       44.84257510      36.12927250       8.33780479
Sc      44.22236630      34.94359210       8.40922928
H        0.81851971      33.98259350       9.21868515
H        0.42251688      33.85521700       7.48459291
H        0.57365000      36.30599590       7.52803135
H        0.37062636      36.37553790       9.32810116
V       43.06905750      34.64086150       8.20347118
Sc      15.72099400      11.81181050      33.84857940
Sc      14.25666900      11.87380600      34.25145340
V       16.40804860      11.96593280      35.11613460
V       14.34217360      11.90193370      35.69865800
Sc      15.56543350      12.25378700      36.11750410
H       16.02725410      12.57205010      33.11492920
H       16.11628530      10.82532310      33.56470490
H       13.56359480      11.11045170      33.86813350
H       13.92880440      12.85429860      33.87577060
V       15.79141620      12.69812110      37.22004320
Sc      10.36201000      11.46270940      20.09551430
Sc       9.82942200      11.87459660      18.73276140
V        9.94188023      12.51179890      21.00403020
V        8.95776272      12.97858810      19.08477400
Sc       9.06193352      13.30657390      20.37983130
H       11.46056560      11.50894830      20.06330870
H        9.92366600      10.53984550      20.50316050
H        9.18052006      11.12764170      18.25215340
H       10.54316040      12.19136240      17.95801160
V        8.50184059      14.13889120      21.05632210
Sc       2.57258773      14.14477830      12.55241390
Sc       3.16701198      13.48487280      13.78593830
V        3.21219373      13.43932250      11.45891760
V        4.18788624      12.61269380      13.23856540
Sc       4.05994701      12.50430970      11.90909860
H        2.72732592      15.22985460      12.45934100
H        1.50804031      13.88079930      12.46843340
H        2.45368719      13.00384430      14.47134300
H        3.72317457      14.21793170      14.38868810
V        4.70651436      11.71829990      11.25469880
Sc      24.95880320      20.83082770      21.84239770
Sc      25.80517580      20.54944230      23.07320020
V       23.67661090      20.22640420      22.14760780
V       24.79397390      20.26433750      24.07254030
Sc      23.60856630      20.07455440      23.47723580
H       25.26058200      20.22814940      20.97308160
H       24.83473590      21.91995810      21.75074770
H       26.34244730      21.46804430      23.35160640
H       26.41893390      19.65187260      22.90686040
V       22.55787280      19.70433430      23.94955060
Sc      37.13218310       6.08207750       2.92774677
Sc      35.61615750       6.13317680       3.02492070
V       37.26358800       4.96927786       2.00747037
V       35.13759230       4.85812473       2.52720809
Sc      36.12632750       4.28348303       1.82879078
H       37.48881530       5.82701015       3.93658447
H       37.47593690       7.05231428       2.53983736
H       35.22827910       6.80412722       2.24429488
H       35.13173290       6.41726828       3.97076750
V       36.03019710       3.27649474       1.16483855
Sc      43.85210040      14.96478840      44.05110550
Sc      43.34119420      13.65063670      43.48332210
V       43.01150130      15.92196080      43.35849380
V       42.31261440      14.00337410      42.52410510
Sc      42.20767210      15.33769700      42.45955280
H       44.92030720      15.16598610      43.88243100
H       43.56200410      15.09720710      45.10387040
H       42.88258360      13.01589870      44.25584030
H       44.09544370      13.08456710      42.91704560
V       41.47989650      15.98662850      41.74308010
Sc       9.17076206      27.56011580      31.51135060
Sc       7.82528687      28.08742140      31.98256490
V        9.70691681      27.21129230      32.81264110
V        7.63995123      27.51396560      33.30139160
Sc       8.71234894      26.76482010      33.59180450
H        9.86404705      28.27623180      31.04602050
H        9.14132214      26.65890310      30.88131140
H        6.96409607      27.83580400      31.34613990
H        7.68867922      29.17366790      32.08935930
V        8.76942539      25.88754080      34.42320250
Sc      33.53019330      32.52928160       4.03966427
Sc      32.25308610      32.00552750       3.40320182
V       34.12906650      31.25417710       4.38311911
V       32.09704970      30.63468740       3.84923434
Sc      33.28650670      30.21537590       4.30197144
H       33.46136470      33.01474000       5.02434206
H       34.17651750      33.07479480       3.33632946
H       32.45221710      31.91073990       2.32553720
H       31.36561970      32.64410400       3.52411413
V       33.66817470      29.08712960       4.51524591
Sc      23.71015740      13.31142330       4.74263620
Sc      22.72369190      14.40620610       5.11510181
V       23.44703100      13.12748430       3.32862425
V       22.55933950      15.07114700       3.83708000
Sc      22.76478390      14.18018440       2.85750031
H       23.56444550      12.40562730       5.34951305
H       24.73543740      13.69258500       4.85889721
H       23.06399730      15.11045650       5.88854933
H       21.74196050      14.03676990       5.44633961
V       22.53631400      14.25901990       1.67188454
Sc      28.39958570      25.46394160      29.69585800
Sc      27.83848380      25.36822890      31.10525700
V       28.32139590      24.10808560      29.18788150
V       28.10021590      23.96802710      31.37623410
Sc      28.27658840      23.27966310      30.24016760
H       29.44553950      25.80446240      29.69080730
H       27.74798200      26.14412310      29.12773510
H       26.75686260      25.56715580      31.08242990
H       28.29323200      26.02480320      31.86163710
V       28.32740590      22.07341770      30.15961460
Sc      38.88523860      16.81492810       7.83826399
Sc      39.02327730      15.51219180       8.60912228
V       39.53993610      17.79086490       8.68762589
V       39.39698790      15.97298620       9.93218899
Sc      39.90908810      17.20754050       9.83612728
H       37.86192320      17.13895420       7.59776735
H       39.40384290      16.80740740       6.86821747
H       39.85556790      14.87482930       8.27587223
H       38.12350850      14.88278580       8.54383850
V       40.73364640      17.65347860      10.60120390
Sc      12.46843530      28.60688400       9.89334679
Sc      11.62829880      29.86956980       9.79237938
V       13.45027160      28.73437690       8.83398819
V       12.35394860      30.68230250       8.83561611
Sc      13.31690220      29.94226260       8.26934624
H       11.89891720      27.71343420       9.59772015
H       13.08242890      28.57763290      10.80557250
H       11.55775450      30.40025900      10.75331210
H       10.71113300      29.59698680       9.24969769
V       13.91124730      30.22346120       7.25358057
Sc       2.50216246      19.54164700       0.40721944
Sc       3.96062899      19.13116260       0.52877790
V        1.74016881      18.38184550       0.82760954
V        3.86000752      17.82765010       1.15585697
Sc       2.58744764      17.59586720       1.50580859
H        2.18130231      19.84300420      45.61017610
H        2.26763177      20.40021710       1.05363190
H        4.52037716      19.74843980       1.24686670
H        4.44210625      19.00177380      45.75928880
V        2.24171686      16.67178730       2.20626998
Sc      10.26691150      44.03289410      37.30234910
Sc       9.11690426      44.90872960      37.77223590
V       11.13611130      43.89344790      38.45454030
V        9.33227062      45.00291060      39.20305630
Sc      10.40388580      44.26125720      39.51480480
H       10.84785840      44.39833070      36.44272230
H        9.81965065      43.03502660      37.18309020
H        8.17081928      44.48332980      37.40623470
H        9.23628330      45.90512470      37.32174300
V       10.67144200      43.81304550      40.60641860
Sc       5.02675867      40.90245440      45.90111160
Sc       6.52649212      40.94286730      45.65705110
V        4.41640902      41.02221680      44.59128950
V        6.59730291      41.16246800      44.22552870
Sc       5.38564110      41.04158400      43.66618730
H        4.78834724      41.76652150       0.32768503
H        4.69355965      39.94064330       0.10707505
H        6.95957232      39.98226170      45.97277070
H        6.82917976      41.78781890       0.08196665
V        5.20958090      41.01055910      42.46946720
Sc      13.32740210      31.47660830      41.33929440
Sc      12.01527790      32.23799900      41.24435040
V       13.08564000      30.29577640      40.53326420
V       11.13137340      31.30071450      40.57898710
Sc      11.80343440      30.22342680      40.15075680
H       13.57946780      31.08936120      42.33754350
H       14.14459990      31.95711710      40.78135300
H       12.20116420      33.13212590      40.63117980
H       11.61416340      32.48414230      42.23859410
V       11.29723360      29.33167840      39.50838090
Sc      38.15953830      39.80202100      31.14292720
Sc      39.51821520      40.23498540      31.66917610
V       37.91547390      40.69265750      30.02503200
V       39.60614010      41.58348850      31.14352610
Sc      38.92228320      41.57628250      29.99118800
H       37.45905690      40.08142470      31.94371220
H       38.09085460      38.74086380      30.86145210
H       40.37224200      39.67737580      31.25721550
H       39.58516690      40.35367580      32.76070400
V       39.22716140      42.40084840      29.15977860
Sc       9.66617393      40.10811610       3.87831068
Sc       9.63323402      40.17287450       2.36004877
V       11.01639460      39.59835050       4.01809072
V       10.60345840      39.18120190       1.93844855
Sc      11.44166280      38.91199870       2.94866705
H        8.80943298      39.45150760       4.09010458
H        9.55120945      41.09059140       4.35947895
H       10.03464220      41.16187290       2.09405160
H        8.63759232      40.11043170       1.89658725
V       12.41816810      38.20270920       2.86238813
Sc      32.58912660      34.45802690      45.84170150
Sc      33.01901630      35.90148930      46.04666900
V       32.27591710      34.04849240       0.98590517
V       32.24402620      36.27471160       1.00293410
Sc      32.00956730      35.15264130       1.69689810
H       33.38467030      33.87480550      45.35491560
H       31.63881680      34.40381620      45.29036330
H       32.83854680      36.54293820      45.17147060
H       34.09472270      35.83832930       0.05668337
V       31.67689320      35.09804150       2.85898495
Sc      30.42708970      10.57865910       7.85915661
Sc      29.11649510      11.32178310       8.06041527
V       30.04033660       9.28554535       7.32927227
V       28.14833830      10.27920250       7.78077888
Sc      28.77292440       9.09520435       7.72046566
H       30.98399160      10.31223680       8.76958370
H       31.14329150      11.13249780       7.23440313
H       28.93553920      12.11776540       7.32307768
H       29.14289860      11.69662570       9.09424114
V       28.32726860       8.01997852       8.05119324
Sc      42.52237320       1.47476828       7.49500513
Sc      42.91020970       0.13680570       8.10314751
V       42.63476180       1.21345544       6.07318163
V       43.76091770      45.78297810       7.07371807
Sc      43.25159840       0.03334041       5.92336941
H       43.26536180       2.20262623       7.85304070
H       41.50521090       1.84014750       7.69964075
H       42.09345250      45.63521580       8.29040241
H       43.51926800       0.09981922       9.01839733
V       43.30734250      45.67602540       4.85661459
Sc      35.71296690      38.12102510      46.06451420
Sc      36.82656100      38.98929980      45.50201800
V       36.30477520      37.59947200       1.07012618
V       37.68520740      39.22952650       0.43444744
Sc      37.33123020      38.38848110       1.41574264
H       35.38582990      37.30778500      45.39996720
H       34.78876880      38.63816450       0.15084512
H       36.38138960      39.96123120      45.24284740
H       37.47489930      38.75771330      44.64409640
V       37.94354630      38.42694850       2.45866656
Sc      14.82390690      26.21775050       7.51549530
Sc      15.82446770      27.26325610       7.05052662
V       13.87644200      26.19264030       6.41814470
V       15.02069660      28.06507870       6.14856863
Sc      13.94817450      27.35986710       5.76390076
H       14.26134780      26.34720230       8.45185375
H       15.27849770      25.21624370       7.53361464
H       16.56324010      26.80927470       6.37368393
H       16.32395740      27.84089090       7.84226179
V       13.14253520      27.50630380       4.87305880
Sc      39.93023300      26.92017940      44.06218720
Sc      39.15808110      27.11485100      45.35689930
V       40.72059250      25.74330140      44.36679080
V       39.06044010      25.74147800      45.81166460
Sc      40.09750750      25.04549030      45.32617950
H       40.57862470      27.72224240      43.67971800
H       39.27415850      26.61708070      43.23291400
H       38.15771480      27.52635380      45.15708160
H       39.82109830      27.70789910      46.00397110
V       40.30488590      23.91535950      45.70551680
Sc      39.60820770       9.27643871      17.75952720
Sc      38.82075500       8.67626286      18.91282840
V       40.34925460       8.15281296      17.22025490
V       39.17818830       7.27186537      18.86375810
Sc      40.02527620       7.01899958      17.85673330
H       40.39195630       9.98049831      18.07580950
H       39.00000000       9.64788914      16.92160800
H       37.74768450       8.90333080      18.82938960
H       39.23317720       8.96378708      19.89121250
V       40.26073070       5.85868263      17.60708430
Sc      23.22170640      22.29414560       4.97088814
Sc      23.49541850      22.25819210       3.47616839
V       21.81267170      21.95802500       4.90652227
V       22.56473160      21.27777100       2.95167518
Sc      21.56213000      21.19129750       3.83649683
H       23.47196390      23.27051160       5.41143179
H       23.75877190      21.46368600       5.45244551
H       24.44621470      21.71889110       3.35313010
H       23.32356830      23.22521970       2.98086429
V       20.51466750      20.60614400       3.67990971
Sc      41.59399410      20.14580350      26.22239300
Sc      41.34138110      20.14800830      24.72353360
V       40.24280170      20.04384420      26.73851590
V       39.91963200      19.89561650      24.59153180
Sc      39.34782410      19.72967910      25.79199030
H       42.19725420      20.96030620      26.64978220
H       42.16522220      19.27013970      26.56431770
H       41.96055980      19.43803020      24.15560340
H       41.53993230      21.15438460      24.32631490
V       38.19739530      19.41511730      25.99611850
Sc      38.08445360      43.43671040      39.75791170
Sc      38.94636150      44.39607240      38.95346450
V       36.87395480      43.40240480      38.96041110
V       38.36834720      44.33735280      37.62495040
Sc      37.20847320      43.66953660      37.69063190
H       37.83336260      43.80679700      40.76289370
H       38.60330200      42.46921160      39.82677080
H       40.00542070      44.10985570      38.87302020
H       38.80040360      45.43729400      39.27680970
V       36.50114060      43.43353270      36.73769760
Sc      15.33117010       4.82562208      33.95336910
Sc      15.62199780       6.27677917      33.60701370
V       16.01212120       4.16544294      32.85656740
V       15.62243080       6.17138767      32.16085050
Sc      16.00221820       4.94765902      31.76861760
H       14.25271700       4.64701176      33.83074570
H       15.66290190       4.54279375      34.96329880
H       16.64483830       6.51107359      33.93701930
H       14.95999150       7.09813929      33.91864780
V       16.19126130       4.46264791      30.67631340
Sc      41.26128390       8.22700024      26.62488370
Sc      42.12521360       8.39618778      27.86399840
V       42.04783630       8.70777607      25.50564960
V       43.04336550       9.39281178      27.34801860
Sc      43.00587080       9.49573040      26.01250270
H       40.44380570       8.96092129      26.68045620
H       40.84346010       7.23246956      26.40964130
H       42.70629120       7.46297932      27.90234760
H       41.66657640       8.73700047      28.80394360
V       43.67102430      10.25680730      25.34735110
Sc      15.92720700      21.95550920      19.11448100
Sc      16.76289180      20.69787030      19.28876300
V       16.78106880      22.70786670      18.21594050
V       18.09576610      21.14738660      18.93679620
Sc      18.05935290      22.40785980      18.48349760
H       15.83720210      22.58340070      20.01317410
H       14.94429590      21.72292140      18.67883490
H       16.58769040      19.87057110      18.58528520
H       16.79882810      20.33926390      20.32804490
V       18.89223100      23.27277370      18.33404160
Sc      34.00097270      19.61936000      17.96062660
Sc      34.00867840      19.79020120      16.45027920
V       33.90539930      20.97692870      18.46099850
V       34.34059140      21.19908140      16.36430740
Sc      33.91926190      21.85860630      17.45201300
H       34.90924450      19.10447690      18.30695340
H       33.15700150      19.05434610      18.38308330
H       33.06073380      19.51108170      15.96706680
H       34.76541900      19.23476410      15.87684150
V       33.69423680      23.04281230      17.55747030
Sc      16.88394360       3.62924314      27.44708630
Sc      15.64939020       4.51234818      27.36706920
V       16.48687740       2.30105019      27.02195170
V       14.64409350       3.54656458      26.96814920
Sc      15.18028070       2.34232569      26.72750470
H       17.32478900       3.56103349      28.45257190
H       17.68174550       3.99043894      26.78146930
H       15.71077540       5.33417034      26.63848300
H       15.29162410       4.88207388      28.33933830
V       14.56629280       1.37626028      26.33528520
Sc      16.72866630      34.95938870      30.10555080
Sc      16.96749110      35.68900680      31.41742710